# vtk DataFile Version 1.0
PEC=0, already_YEEadvanced_byconformal=5, NOTOUCHNOUSE=6, WIRE=7, WIRE-COLISION=8, COMPO=3, DISPER=1, DIEL=2, SLOT=4, CONF=5/6, OTHER=-1 (ADD +0.5 for borders)
ASCII
 
DATASET UNSTRUCTURED_GRID
FIELD FieldData 1
TIME 1 1 double
  0.000000000000E+000
POINTS        40 float
0.110000014305E+001  0.110000014305E+001  0.700000047684E+000
0.110000014305E+001  0.110000014305E+001  0.800000071526E+000
0.110000014305E+001  0.110000014305E+001  0.800000071526E+000
0.110000014305E+001  0.110000014305E+001  0.900000095367E+000
0.110000014305E+001  0.110000014305E+001  0.900000095367E+000
0.110000014305E+001  0.110000014305E+001  0.100000011921E+001
0.110000014305E+001  0.110000014305E+001  0.100000011921E+001
0.110000014305E+001  0.110000014305E+001  0.110000014305E+001
0.110000014305E+001  0.110000014305E+001  0.110000014305E+001
0.110000014305E+001  0.110000014305E+001  0.120000016689E+001
0.110000014305E+001  0.110000014305E+001  0.120000016689E+001
0.110000014305E+001  0.110000014305E+001  0.130000019073E+001
0.110000014305E+001  0.110000014305E+001  0.130000019073E+001
0.110000014305E+001  0.110000014305E+001  0.140000021458E+001
0.110000014305E+001  0.110000014305E+001  0.140000021458E+001
0.110000014305E+001  0.110000014305E+001  0.150000023842E+001
0.110000014305E+001  0.110000014305E+001  0.150000023842E+001
0.110000014305E+001  0.110000014305E+001  0.160000026226E+001
0.110000014305E+001  0.110000014305E+001  0.160000026226E+001
0.110000014305E+001  0.110000014305E+001  0.170000028610E+001
0.110000014305E+001  0.110000014305E+001  0.700000047684E+000
0.110000014305E+001  0.110000014305E+001  0.800000071526E+000
0.110000014305E+001  0.110000014305E+001  0.800000071526E+000
0.110000014305E+001  0.110000014305E+001  0.900000095367E+000
0.110000014305E+001  0.110000014305E+001  0.900000095367E+000
0.110000014305E+001  0.110000014305E+001  0.100000011921E+001
0.110000014305E+001  0.110000014305E+001  0.100000011921E+001
0.110000014305E+001  0.110000014305E+001  0.110000014305E+001
0.110000014305E+001  0.110000014305E+001  0.110000014305E+001
0.110000014305E+001  0.110000014305E+001  0.120000016689E+001
0.110000014305E+001  0.110000014305E+001  0.120000016689E+001
0.110000014305E+001  0.110000014305E+001  0.130000019073E+001
0.110000014305E+001  0.110000014305E+001  0.130000019073E+001
0.110000014305E+001  0.110000014305E+001  0.140000021458E+001
0.110000014305E+001  0.110000014305E+001  0.140000021458E+001
0.110000014305E+001  0.110000014305E+001  0.150000023842E+001
0.110000014305E+001  0.110000014305E+001  0.150000023842E+001
0.110000014305E+001  0.110000014305E+001  0.160000026226E+001
0.110000014305E+001  0.110000014305E+001  0.160000026226E+001
0.110000014305E+001  0.110000014305E+001  0.170000028610E+001
 
CELLS        20       60
 2        0        1
 2        2        3
 2        4        5
 2        6        7
 2        8        9
 2       10       11
 2       12       13
 2       14       15
 2       16       17
 2       18       19
 2       20       21
 2       22       23
 2       24       25
 2       26       27
 2       28       29
 2       30       31
 2       32       33
 2       34       35
 2       36       37
 2       38       39
 
CELL_TYPES        20
 3
 3
 3
 3
 3
 3
 3
 3
 3
 3
 3
 3
 3
 3
 3
 3
 3
 3
 3
 3
 
CELL_DATA        20
SCALARS mediatype float 1
LOOKUP_TABLE default
  0.700000000000E+001
  0.700000000000E+001
  0.700000000000E+001
  0.700000000000E+001
  0.700000000000E+001
  0.700000000000E+001
  0.700000000000E+001
  0.700000000000E+001
  0.700000000000E+001
  0.700000000000E+001
  0.100000000000E+002
  0.210000000000E+002
  0.210000000000E+002
  0.210000000000E+002
  0.210000000000E+002
  0.210000000000E+002
  0.210000000000E+002
  0.210000000000E+002
  0.210000000000E+002
  0.100000000000E+002
 
SCALARS tagnumber float 1
LOOKUP_TABLE default
     64
     64
     64
     64
     64
     64
     64
     64
     64
     64
     64
     64
     64
     64
     64
     64
     64
     64
     64
     64
 
